file 22051 1738226184                                           
version 3
run General-0-20250129-12:53:28-18352
attr configname General
attr datetime 20250129-12:53:28
attr datetimef 20250129-125328
attr experiment General
attr inifile omnetpp.ini
attr iterationvars ""
attr iterationvarsd ""
attr iterationvarsf ""
attr measurement ""
attr network SatelliteNetwork
attr processid 18352
attr repetition 0
attr replication #0
attr resultdir results
attr runnumber 0
attr seedset 0
config image-path ../../inet/images
config network SatelliteNetwork
config record-eventlog true
config sim-time-limit 100s
config *.satellite1.numApps 1
config *.satellite1.app[0].typename TcpBasicClientApp
config *.satellite1.app[0].localAddress "\"10.0.0.1\""
config *.satellite1.app[0].connectAddress "\"10.0.0.2\""
config *.satellite1.app[0].connectPort 80
config *.satellite1.app[0].tSend 1s
config *.satellite1.app[0].sendBytes 1024B
config *.satellite2.numApps 1
config *.satellite2.app[0].typename TcpSinkApp
config *.satellite2.app[0].localAddress "\"10.0.0.2\""
config *.satellite2.app[0].localPort 80
config output-scalar-file results/scalars.sca
config output-vector-file results/vectors.vec
config **.recordScalar true
config **.recordVectors true
config **.tcp.recordStats true
config **.tcp.verbose true

vector 4 SatelliteNetwork.satellite1.ppp[0].queue queueLength:vector ETV
attr autoWarmupFilter false
attr interpolationmode sample-hold
attr recordingmode vector
attr source "warmup(atomic(constant0(packetPushEnded) + count(packetPushStarted) - count(packetPulled) - count(packetRemoved) - count(packetDropped)))"
attr title "queue length"
attr unit pk
4	21769 45 0 0 0 0 5 0 0 0 0
vector 5 SatelliteNetwork.satellite1.ppp[0].queue queueBitLength:vector ETV
attr autoWarmupFilter false
attr interpolationmode sample-hold
attr recordingmode vector
attr source "warmup(atomic(constant0(packetPushEnded) + sum(packetLength(packetPushStarted)) - sum(packetLength(packetPulled)) - sum(packetLength(packetRemoved)) - sum(packetLength(packetDropped))))"
attr title "queue bit length"
attr unit b
5	21814 45 0 0 0 0 5 0 0 0 0
vector 15 SatelliteNetwork.satellite1.ppp[0].ppp transmissionState:vector ETV
attr interpolationmode sample-hold
attr recordingmode vector
attr source transmissionStateChanged
attr title "tx state"
15	21859 10 0 0 0 0 1 0 0 0 0
vector 34 SatelliteNetwork.satellite1.udp passedUpPk:vector(count) ETV
attr interpolationmode none
attr recordingmode vector(count)
attr source packetSentToUpper
attr title "packets passed up, count"
34	21869 10 0 0 0 0 1 0 0 0 0
vector 35 SatelliteNetwork.satellite1.udp droppedPkWrongPort:vector(count) ETV
attr interpolationmode none
attr recordingmode vector(count)
attr source packetDropReasonIsNoPortFound(packetDropped)
attr title "packets dropped (wrong port), count"
35	21879 10 0 0 0 0 1 0 0 0 0
vector 36 SatelliteNetwork.satellite1.udp droppedPkBadChecksum:vector(count) ETV
attr interpolationmode none
attr recordingmode vector(count)
attr source packetDropReasonIsIncorrectlyReceived(packetDropped)
attr title "packets dropped (checksum error), count"
36	21889 10 0 0 0 0 1 0 0 0 0
vector 40 SatelliteNetwork.satellite1.app[0] numActiveSessions:vector ETV
attr autoWarmupFilter false
attr interpolationmode sample-hold
attr recordingmode vector
attr source warmup(sum(connect))
attr title "number of active sessions"
40	21899 10 0 0 0 0 1 0 0 0 0
vector 45 SatelliteNetwork.satellite2.ppp[0].queue queueLength:vector ETV
attr autoWarmupFilter false
attr interpolationmode sample-hold
attr recordingmode vector
attr source "warmup(atomic(constant0(packetPushEnded) + count(packetPushStarted) - count(packetPulled) - count(packetRemoved) - count(packetDropped)))"
attr title "queue length"
attr unit pk
45	21909 50 0 0 0 0 5 0 0 0 0
vector 46 SatelliteNetwork.satellite2.ppp[0].queue queueBitLength:vector ETV
attr autoWarmupFilter false
attr interpolationmode sample-hold
attr recordingmode vector
attr source "warmup(atomic(constant0(packetPushEnded) + sum(packetLength(packetPushStarted)) - sum(packetLength(packetPulled)) - sum(packetLength(packetRemoved)) - sum(packetLength(packetDropped))))"
attr title "queue bit length"
attr unit b
46	21959 50 0 0 0 0 5 0 0 0 0
vector 56 SatelliteNetwork.satellite2.ppp[0].ppp transmissionState:vector ETV
attr interpolationmode sample-hold
attr recordingmode vector
attr source transmissionStateChanged
attr title "tx state"
56	22009 10 0 0 0 0 1 0 0 0 0
vector 75 SatelliteNetwork.satellite2.udp passedUpPk:vector(count) ETV
attr interpolationmode none
attr recordingmode vector(count)
attr source packetSentToUpper
attr title "packets passed up, count"
75	22019 10 0 0 0 0 1 0 0 0 0
vector 76 SatelliteNetwork.satellite2.udp droppedPkWrongPort:vector(count) ETV
attr interpolationmode none
attr recordingmode vector(count)
attr source packetDropReasonIsNoPortFound(packetDropped)
attr title "packets dropped (wrong port), count"
76	22029 10 0 0 0 0 1 0 0 0 0
vector 77 SatelliteNetwork.satellite2.udp droppedPkBadChecksum:vector(count) ETV
attr interpolationmode none
attr recordingmode vector(count)
attr source packetDropReasonIsIncorrectlyReceived(packetDropped)
attr title "packets dropped (checksum error), count"
77	22039 12 0 0 0 0 1 0 0 0 0
